 Entering Gaussian System, Link 0=g16
 Initial command:
 /tools/licensed/gaussian-16/g16/l1.exe "/scratch/ezm0048/H2O_1et/Gau-239976.inp" -scrdir="/scratch/ezm0048/H2O_1et/"
 Default CPUs for threads: 12
 Entering Link 1 = /tools/licensed/gaussian-16/g16/l1.exe PID=    239977.
  
 Copyright (c) 1988-2017, Gaussian, Inc.  All Rights Reserved.
  
 This is part of the Gaussian(R) 16 program.  It is based on
 the Gaussian(R) 09 system (copyright 2009, Gaussian, Inc.),
 the Gaussian(R) 03 system (copyright 2003, Gaussian, Inc.),
 the Gaussian(R) 98 system (copyright 1998, Gaussian, Inc.),
 the Gaussian(R) 94 system (copyright 1995, Gaussian, Inc.),
 the Gaussian 92(TM) system (copyright 1992, Gaussian, Inc.),
 the Gaussian 90(TM) system (copyright 1990, Gaussian, Inc.),
 the Gaussian 88(TM) system (copyright 1988, Gaussian, Inc.),
 the Gaussian 86(TM) system (copyright 1986, Carnegie Mellon
 University), and the Gaussian 82(TM) system (copyright 1983,
 Carnegie Mellon University). Gaussian is a federally registered
 trademark of Gaussian, Inc.
  
 This software contains proprietary and confidential information,
 including trade secrets, belonging to Gaussian, Inc.
  
 This software is provided under written license and may be
 used, copied, transmitted, or stored only in accord with that
 written license.
  
 The following legend is applicable only to US Government
 contracts under FAR:
  
                    RESTRICTED RIGHTS LEGEND
  
 Use, reproduction and disclosure by the US Government is
 subject to restrictions as set forth in subparagraphs (a)
 and (c) of the Commercial Computer Software - Restricted
 Rights clause in FAR 52.227-19.
  
 Gaussian, Inc.
 340 Quinnipiac St., Bldg. 40, Wallingford CT 06492
  
  
 ---------------------------------------------------------------
 Warning -- This program may not be used in any manner that
 competes with the business of Gaussian, Inc. or will provide
 assistance to any competitor of Gaussian, Inc.  The licensee
 of this program is prohibited from giving any competitor of
 Gaussian, Inc. access to this program.  By using this program,
 the user acknowledges that Gaussian, Inc. is engaged in the
 business of creating and licensing software in the field of
 computational chemistry and represents and warrants to the
 licensee that it is not a competitor of Gaussian, Inc. and that
 it will not use this program in any manner prohibited above.
 ---------------------------------------------------------------
  

 Cite this work as:
 Gaussian 16, Revision B.01,
 M. J. Frisch, G. W. Trucks, H. B. Schlegel, G. E. Scuseria, 
 M. A. Robb, J. R. Cheeseman, G. Scalmani, V. Barone, 
 G. A. Petersson, H. Nakatsuji, X. Li, M. Caricato, A. V. Marenich, 
 J. Bloino, B. G. Janesko, R. Gomperts, B. Mennucci, H. P. Hratchian, 
 J. V. Ortiz, A. F. Izmaylov, J. L. Sonnenberg, D. Williams-Young, 
 F. Ding, F. Lipparini, F. Egidi, J. Goings, B. Peng, A. Petrone, 
 T. Henderson, D. Ranasinghe, V. G. Zakrzewski, J. Gao, N. Rega, 
 G. Zheng, W. Liang, M. Hada, M. Ehara, K. Toyota, R. Fukuda, 
 J. Hasegawa, M. Ishida, T. Nakajima, Y. Honda, O. Kitao, H. Nakai, 
 T. Vreven, K. Throssell, J. A. Montgomery, Jr., J. E. Peralta, 
 F. Ogliaro, M. J. Bearpark, J. J. Heyd, E. N. Brothers, K. N. Kudin, 
 V. N. Staroverov, T. A. Keith, R. Kobayashi, J. Normand, 
 K. Raghavachari, A. P. Rendell, J. C. Burant, S. S. Iyengar, 
 J. Tomasi, M. Cossi, J. M. Millam, M. Klene, C. Adamo, R. Cammi, 
 J. W. Ochterski, R. L. Martin, K. Morokuma, O. Farkas, 
 J. B. Foresman, and D. J. Fox, Gaussian, Inc., Wallingford CT, 2016.
 
 ******************************************
 Gaussian 16:  ES64L-G16RevB.01 20-Dec-2017
                22-Nov-2022 
 ******************************************
 %chk=H2O_1et.chk
 %NProcShared=12
 Will use up to   12 processors via shared memory.
 %MEM=12GB
 --------------------------
 #mn15/aug-cc-pvtz freq opt
 --------------------------
 1/18=20,19=15,26=3,38=1/1,3;
 2/9=110,12=2,17=6,18=5,40=1/2;
 3/5=16,6=1,7=10,11=2,25=1,30=1,71=1,74=-73/1,2,3;
 4//1;
 5/5=2,38=5/2;
 6/7=2,8=2,9=2,10=2,28=1/1;
 7//1,2,3,16;
 1/18=20,19=15,26=3/3(2);
 2/9=110/2;
 99//99;
 2/9=110/2;
 3/5=16,6=1,7=10,11=2,25=1,30=1,71=1,74=-73/1,2,3;
 4/5=5,16=3,69=1/1;
 5/5=2,38=5/2;
 7//1,2,3,16;
 1/18=20,19=15,26=3/3(-5);
 2/9=110/2;
 6/7=2,8=2,9=2,10=2,19=2,28=1/1;
 99/9=1/99;
 ---------------------------------------
 geometry optimization and freqs for H2O
 ---------------------------------------
 Symbolic Z-matrix:
 Charge =  0 Multiplicity = 1
 O                    -4.57976   2.82785   0. 
 H                    -3.60976   2.82785   0. 
 H                    -4.90309   2.88045   0.91301 
 

 GradGradGradGradGradGradGradGradGradGradGradGradGradGradGradGradGradGrad
 Berny optimization.
 Initialization pass.
                           ----------------------------
                           !    Initial Parameters    !
                           ! (Angstroms and Degrees)  !
 --------------------------                            --------------------------
 ! Name  Definition              Value          Derivative Info.                !
 --------------------------------------------------------------------------------
 ! R1    R(1,2)                  0.97           estimate D2E/DX2                !
 ! R2    R(1,3)                  0.97           estimate D2E/DX2                !
 ! A1    A(2,1,3)              109.471          estimate D2E/DX2                !
 --------------------------------------------------------------------------------
 Trust Radius=3.00D-01 FncErr=1.00D-07 GrdErr=1.00D-06 EigMax=2.50D+02 EigMin=1.00D-04
 Number of steps in this run=     20 maximum allowed number of steps=    100.
 GradGradGradGradGradGradGradGradGradGradGradGradGradGradGradGradGradGrad

                          Input orientation:                          
 ---------------------------------------------------------------------
 Center     Atomic      Atomic             Coordinates (Angstroms)
 Number     Number       Type             X           Y           Z
 ---------------------------------------------------------------------
      1          8           0       -4.579762    2.827853    0.000000
      2          1           0       -3.609762    2.827853    0.000000
      3          1           0       -4.903091    2.880449    0.913012
 ---------------------------------------------------------------------
                    Distance matrix (angstroms):
                    1          2          3
     1  O    0.000000
     2  H    0.970000   0.000000
     3  H    0.970000   1.584001   0.000000
 Stoichiometry    H2O
 Framework group  C2V[C2(O),SGV(H2)]
 Deg. of freedom     2
 Full point group                 C2V     NOp   4
 Largest Abelian subgroup         C2V     NOp   4
 Largest concise Abelian subgroup C2      NOp   2
                         Standard orientation:                         
 ---------------------------------------------------------------------
 Center     Atomic      Atomic             Coordinates (Angstroms)
 Number     Number       Type             X           Y           Z
 ---------------------------------------------------------------------
      1          8           0        0.000000    0.000000    0.112006
      2          1           0        0.000000    0.792001   -0.448025
      3          1           0       -0.000000   -0.792001   -0.448025
 ---------------------------------------------------------------------
 Rotational constants (GHZ):         900.1665807         399.7155409         276.8024621
 Standard basis: Aug-CC-pVTZ (5D, 7F)
 There are    42 symmetry adapted cartesian basis functions of A1  symmetry.
 There are    12 symmetry adapted cartesian basis functions of A2  symmetry.
 There are    20 symmetry adapted cartesian basis functions of B1  symmetry.
 There are    31 symmetry adapted cartesian basis functions of B2  symmetry.
 There are    35 symmetry adapted basis functions of A1  symmetry.
 There are    12 symmetry adapted basis functions of A2  symmetry.
 There are    18 symmetry adapted basis functions of B1  symmetry.
 There are    27 symmetry adapted basis functions of B2  symmetry.
    92 basis functions,   126 primitive gaussians,   105 cartesian basis functions
     5 alpha electrons        5 beta electrons
       nuclear repulsion energy         9.0627725294 Hartrees.
 NAtoms=    3 NActive=    3 NUniq=    2 SFac= 2.25D+00 NAtFMM=   60 NAOKFM=F Big=F
 Integral buffers will be    131072 words long.
 Raffenetti 2 integral format.
 Two-electron integral symmetry is turned on.
 One-electron integrals computed using PRISM.
 NBasis=    92 RedAO= T EigKep=  3.85D-04  NBF=    35    12    18    27
 NBsUse=    92 1.00D-06 EigRej= -1.00D+00 NBFU=    35    12    18    27
 ExpMin= 2.53D-02 ExpMax= 1.53D+04 ExpMxC= 5.22D+02 IAcc=3 IRadAn=         5 AccDes= 0.00D+00
 Harris functional with IExCor= 1009 and IRadAn=       5 diagonalized for initial guess.
 HarFok:  IExCor= 1009 AccDes= 0.00D+00 IRadAn=         5 IDoV= 1 UseB2=F ITyADJ=14
 ICtDFT=  3500011 ScaDFX=  1.000000  1.000000  1.000000  1.000000
 FoFCou: FMM=F IPFlag=           0 FMFlag=      100000 FMFlg1=           0
         NFxFlg=           0 DoJE=T BraDBF=F KetDBF=T FulRan=T
         wScrn=  0.000000 ICntrl=       500 IOpCl=  0 I1Cent=   200000004 NGrid=           0
         NMat0=    1 NMatS0=      1 NMatT0=    0 NMatD0=    1 NMtDS0=    0 NMtDT0=    0
 Petite list used in FoFCou.
 Initial guess orbital symmetries:
       Occupied  (A1) (A1) (B2) (A1) (B1)
       Virtual   (A1) (B2) (A1) (B1) (A1) (B2) (B2) (A1) (A2) (A1)
                 (B1) (B2) (A1) (B2) (B2) (A1) (A1) (B1) (A2) (A1)
                 (A1) (B1) (B1) (B2) (A2) (B2) (A1) (B2) (A1) (B1)
                 (B2) (A1) (A2) (B2) (A2) (A1) (B1) (A1) (B2) (B2)
                 (A1) (B1) (A2) (A1) (A1) (B1) (B2) (A1) (B1) (B2)
                 (A1) (A2) (B2) (B2) (A1) (B1) (A2) (A1) (B2) (B1)
                 (B1) (A2) (B2) (A1) (A1) (B2) (B2) (A2) (A1) (B2)
                 (B1) (A1) (A1) (B2) (B1) (A1) (B1) (A1) (B1) (A2)
                 (A2) (B2) (A1) (B2) (A1) (B2) (A1)
 The electronic state of the initial guess is 1-A1.
 Keep R1 ints in memory in symmetry-blocked form, NReq=20341797.
 Requested convergence on RMS density matrix=1.00D-08 within 128 cycles.
 Requested convergence on MAX density matrix=1.00D-06.
 Requested convergence on             energy=1.00D-06.
 No special actions if energy rises.
 SCF Done:  E(RMN15) =  -76.3835592277     A.U. after    8 cycles
            NFock=  8  Conv=0.80D-08     -V/T= 2.0096

 **********************************************************************

            Population analysis using the SCF Density.

 **********************************************************************

 Orbital symmetries:
       Occupied  (A1) (A1) (B2) (A1) (B1)
       Virtual   (A1) (B2) (A1) (B1) (A1) (B2) (B2) (A1) (A2) (B1)
                 (A1) (B2) (A1) (B2) (B2) (A1) (A1) (B1) (A2) (A1)
                 (B1) (A1) (B1) (B2) (A2) (B2) (A1) (A1) (B2) (B1)
                 (B2) (A1) (A2) (B2) (A2) (A1) (B1) (A1) (B2) (B2)
                 (A1) (B1) (A2) (A1) (A1) (B1) (B2) (A1) (B1) (B2)
                 (A1) (A2) (B2) (B2) (A1) (B1) (A2) (A1) (B2) (B1)
                 (B1) (A2) (B2) (A1) (A1) (B2) (B2) (A2) (A1) (B2)
                 (B1) (A1) (A1) (B2) (B1) (A1) (B1) (B1) (A1) (A2)
                 (A2) (B2) (A1) (B2) (A1) (B2) (A1)
 The electronic state is 1-A1.
 Alpha  occ. eigenvalues --  -18.82761  -1.04907  -0.58135  -0.43151  -0.36914
 Alpha virt. eigenvalues --    0.02153   0.05059   0.11223   0.15209   0.15530
 Alpha virt. eigenvalues --    0.15672   0.20716   0.22686   0.25134   0.28019
 Alpha virt. eigenvalues --    0.28117   0.36609   0.38142   0.39799   0.52877
 Alpha virt. eigenvalues --    0.56455   0.62401   0.64034   0.64098   0.74665
 Alpha virt. eigenvalues --    0.77472   0.78776   0.82952   0.83026   0.85487
 Alpha virt. eigenvalues --    0.86879   0.89981   0.95296   0.95590   0.98448
 Alpha virt. eigenvalues --    1.07001   1.10546   1.12250   1.17966   1.39989
 Alpha virt. eigenvalues --    1.45953   1.46358   1.63367   1.64206   1.80257
 Alpha virt. eigenvalues --    1.90458   2.02482   2.09200   2.10528   2.15813
 Alpha virt. eigenvalues --    2.19761   2.21529   2.26380   2.48774   2.48892
 Alpha virt. eigenvalues --    2.50585   2.64450   2.65689   3.25444   3.39915
 Alpha virt. eigenvalues --    3.62532   3.69000   3.89902   3.90061   4.01328
 Alpha virt. eigenvalues --    4.04585   4.04881   4.10268   4.12697   4.24589
 Alpha virt. eigenvalues --    4.36458   4.74263   4.75500   4.85630   4.88612
 Alpha virt. eigenvalues --    5.01721   5.25285   5.58576   5.99045   6.12371
 Alpha virt. eigenvalues --    6.24208   6.51957   6.59910   6.61550   6.66232
 Alpha virt. eigenvalues --    6.69232   6.73794   6.84330   7.16590   7.23750
 Alpha virt. eigenvalues --    7.98054  14.20713
          Condensed to atoms (all electrons):
               1          2          3
     1  O    7.848508   0.307130   0.307130
     2  H    0.307130   0.448408   0.013077
     3  H    0.307130   0.013077   0.448408
 Mulliken charges:
               1
     1  O   -0.462768
     2  H    0.231384
     3  H    0.231384
 Sum of Mulliken charges =   0.00000
 Mulliken charges with hydrogens summed into heavy atoms:
               1
     1  O    0.000000
 Electronic spatial extent (au):  <R**2>=             20.0094
 Charge=              0.0000 electrons
 Dipole moment (field-independent basis, Debye):
    X=              0.0000    Y=              0.0000    Z=             -1.8304  Tot=              1.8304
 Quadrupole moment (field-independent basis, Debye-Ang):
   XX=             -7.7202   YY=             -4.1954   ZZ=             -6.5617
   XY=             -0.0000   XZ=              0.0000   YZ=             -0.0000
 Traceless Quadrupole moment (field-independent basis, Debye-Ang):
   XX=             -1.5611   YY=              1.9637   ZZ=             -0.4026
   XY=             -0.0000   XZ=              0.0000   YZ=             -0.0000
 Octapole moment (field-independent basis, Debye-Ang**2):
  XXX=              0.0000  YYY=              0.0000  ZZZ=             -0.9327  XYY=              0.0000
  XXY=              0.0000  XXZ=             -0.2040  XZZ=              0.0000  YZZ=              0.0000
  YYZ=             -1.3722  XYZ=             -0.0000
 Hexadecapole moment (field-independent basis, Debye-Ang**3):
 XXXX=             -7.3757 YYYY=             -6.4183 ZZZZ=             -7.8742 XXXY=             -0.0000
 XXXZ=              0.0000 YYYX=             -0.0000 YYYZ=              0.0000 ZZZX=              0.0000
 ZZZY=              0.0000 XXYY=             -2.6888 XXZZ=             -2.5819 YYZZ=             -2.1310
 XXYZ=             -0.0000 YYXZ=              0.0000 ZZXY=             -0.0000
 N-N= 9.062772529397D+00 E-N=-1.985260550845D+02  KE= 7.565989981474D+01
 Symmetry A1   KE= 6.739071620555D+01
 Symmetry A2   KE=-1.997798870724D-20
 Symmetry B1   KE= 4.589796442141D+00
 Symmetry B2   KE= 3.679387167047D+00
 Calling FoFJK, ICntrl=      2127 FMM=F ISym2X=1 I1Cent= 0 IOpClX= 0 NMat=1 NMatS=1 NMatT=0.
 ***** Axes restored to original set *****
 -------------------------------------------------------------------
 Center     Atomic                   Forces (Hartrees/Bohr)
 Number     Number              X              Y              Z
 -------------------------------------------------------------------
      1        8           0.001765684    0.000143610    0.002492911
      2        1          -0.010289977    0.000310758    0.005394410
      3        1           0.008524292   -0.000454368   -0.007887322
 -------------------------------------------------------------------
 Cartesian Forces:  Max     0.010289977 RMS     0.005572877

 GradGradGradGradGradGradGradGradGradGradGradGradGradGradGradGradGradGrad
 Berny optimization.
 FormGI is forming the generalized inverse of G from B-inverse, IUseBI=4.
 Internal  Forces:  Max     0.010289977 RMS     0.010163120
 Search for a local minimum.
 Step number   1 out of a maximum of   20
 All quantities printed in internal units (Hartrees-Bohrs-Radians)
 Mixed Optimization -- RFO/linear search
 Second derivative matrix not updated -- first step.
 The second derivative matrix:
                          R1        R2        A1
           R1           0.53377
           R2           0.00000   0.53377
           A1           0.00000   0.00000   0.16000
 ITU=  0
     Eigenvalues ---    0.16000   0.53377   0.53377
 RFO step:  Lambda=-1.00528878D-03 EMin= 1.60000000D-01
 Linear search not attempted -- first point.
 Iteration  1 RMS(Cart)=  0.04264020 RMS(Int)=  0.00079957
 Iteration  2 RMS(Cart)=  0.00056172 RMS(Int)=  0.00000016
 Iteration  3 RMS(Cart)=  0.00000018 RMS(Int)=  0.00000000
 ClnCor:  largest displacement from symmetrization is 1.02D-14 for atom     3.
 Variable       Old X    -DE/DX   Delta X   Delta X   Delta X     New X
                                 (Linear)    (Quad)   (Total)
    R1        1.83303  -0.01029   0.00000  -0.01924  -0.01924   1.81379
    R2        1.83303  -0.01029   0.00000  -0.01924  -0.01924   1.81379
    A1        1.91063  -0.00990   0.00000  -0.06152  -0.06152   1.84911
         Item               Value     Threshold  Converged?
 Maximum Force            0.010290     0.000450     NO 
 RMS     Force            0.010163     0.000300     NO 
 Maximum Displacement     0.046227     0.001800     NO 
 RMS     Displacement     0.042798     0.001200     NO 
 Predicted change in Energy=-5.049187D-04
 GradGradGradGradGradGradGradGradGradGradGradGradGradGradGradGradGradGrad

                          Input orientation:                          
 ---------------------------------------------------------------------
 Center     Atomic      Atomic             Coordinates (Angstroms)
 Number     Number       Type             X           Y           Z
 ---------------------------------------------------------------------
      1          8           0       -4.586675    2.827291   -0.009760
      2          1           0       -3.627311    2.828988    0.019709
      3          1           0       -4.878629    2.879876    0.903064
 ---------------------------------------------------------------------
                    Distance matrix (angstroms):
                    1          2          3
     1  O    0.000000
     2  H    0.959818   0.000000
     3  H    0.959818   1.532548   0.000000
 Stoichiometry    H2O
 Framework group  C2V[C2(O),SGV(H2)]
 Deg. of freedom     2
 Full point group                 C2V     NOp   4
 Largest Abelian subgroup         C2V     NOp   4
 Largest concise Abelian subgroup C2      NOp   2
                         Standard orientation:                         
 ---------------------------------------------------------------------
 Center     Atomic      Atomic             Coordinates (Angstroms)
 Number     Number       Type             X           Y           Z
 ---------------------------------------------------------------------
      1          8           0        0.000000    0.000000    0.115598
      2          1           0       -0.000000    0.766274   -0.462393
      3          1           0       -0.000000   -0.766274   -0.462393
 ---------------------------------------------------------------------
 Rotational constants (GHZ):         845.0928878         427.0059283         283.6726742
 Standard basis: Aug-CC-pVTZ (5D, 7F)
 There are    42 symmetry adapted cartesian basis functions of A1  symmetry.
 There are    12 symmetry adapted cartesian basis functions of A2  symmetry.
 There are    20 symmetry adapted cartesian basis functions of B1  symmetry.
 There are    31 symmetry adapted cartesian basis functions of B2  symmetry.
 There are    35 symmetry adapted basis functions of A1  symmetry.
 There are    12 symmetry adapted basis functions of A2  symmetry.
 There are    18 symmetry adapted basis functions of B1  symmetry.
 There are    27 symmetry adapted basis functions of B2  symmetry.
    92 basis functions,   126 primitive gaussians,   105 cartesian basis functions
     5 alpha electrons        5 beta electrons
       nuclear repulsion energy         9.1665874744 Hartrees.
 NAtoms=    3 NActive=    3 NUniq=    2 SFac= 2.25D+00 NAtFMM=   60 NAOKFM=F Big=F
 Integral buffers will be    131072 words long.
 Raffenetti 2 integral format.
 Two-electron integral symmetry is turned on.
 One-electron integrals computed using PRISM.
 NBasis=    92 RedAO= T EigKep=  3.84D-04  NBF=    35    12    18    27
 NBsUse=    92 1.00D-06 EigRej= -1.00D+00 NBFU=    35    12    18    27
 Initial guess from the checkpoint file:  "H2O_1et.chk"
 B after Tr=     0.000000    0.000000   -0.000000
         Rot=    1.000000   -0.000000   -0.000000    0.000000 Ang=   0.00 deg.
 Initial guess orbital symmetries:
       Occupied  (A1) (A1) (B2) (A1) (B1)
       Virtual   (A1) (B2) (A1) (B1) (A1) (B2) (B2) (A1) (A2) (B1)
                 (A1) (B2) (A1) (B2) (B2) (A1) (A1) (B1) (A2) (A1)
                 (B1) (A1) (B1) (B2) (A2) (B2) (A1) (A1) (B2) (B1)
                 (B2) (A1) (A2) (B2) (A2) (A1) (B1) (A1) (B2) (B2)
                 (A1) (B1) (A2) (A1) (A1) (B1) (B2) (A1) (B1) (B2)
                 (A1) (A2) (B2) (B2) (A1) (B1) (A2) (A1) (B2) (B1)
                 (B1) (A2) (B2) (A1) (A1) (B2) (B2) (A2) (A1) (B2)
                 (B1) (A1) (A1) (B2) (B1) (A1) (B1) (B1) (A1) (A2)
                 (A2) (B2) (A1) (B2) (A1) (B2) (A1)
 ExpMin= 2.53D-02 ExpMax= 1.53D+04 ExpMxC= 5.22D+02 IAcc=3 IRadAn=         5 AccDes= 0.00D+00
 Harris functional with IExCor= 1009 and IRadAn=       5 diagonalized for initial guess.
 HarFok:  IExCor= 1009 AccDes= 0.00D+00 IRadAn=         5 IDoV= 1 UseB2=F ITyADJ=14
 ICtDFT=  3500011 ScaDFX=  1.000000  1.000000  1.000000  1.000000
 FoFCou: FMM=F IPFlag=           0 FMFlag=      100000 FMFlg1=           0
         NFxFlg=           0 DoJE=T BraDBF=F KetDBF=T FulRan=T
         wScrn=  0.000000 ICntrl=       500 IOpCl=  0 I1Cent=   200000004 NGrid=           0
         NMat0=    1 NMatS0=      1 NMatT0=    0 NMatD0=    1 NMtDS0=    0 NMtDT0=    0
 Petite list used in FoFCou.
 Keep R1 ints in memory in symmetry-blocked form, NReq=20341797.
 Requested convergence on RMS density matrix=1.00D-08 within 128 cycles.
 Requested convergence on MAX density matrix=1.00D-06.
 Requested convergence on             energy=1.00D-06.
 No special actions if energy rises.
 SCF Done:  E(RMN15) =  -76.3840350061     A.U. after    8 cycles
            NFock=  8  Conv=0.19D-08     -V/T= 2.0089
 Calling FoFJK, ICntrl=      2127 FMM=F ISym2X=1 I1Cent= 0 IOpClX= 0 NMat=1 NMatS=1 NMatT=0.
 ***** Axes restored to original set *****
 -------------------------------------------------------------------
 Center     Atomic                   Forces (Hartrees/Bohr)
 Number     Number              X              Y              Z
 -------------------------------------------------------------------
      1        8          -0.001183578   -0.000096265   -0.001671055
      2        1           0.001718415    0.000002316    0.000040198
      3        1          -0.000534837    0.000093949    0.001630857
 -------------------------------------------------------------------
 Cartesian Forces:  Max     0.001718415 RMS     0.001059963

 GradGradGradGradGradGradGradGradGradGradGradGradGradGradGradGradGradGrad
 Berny optimization.
 Using GEDIIS/GDIIS optimizer.
 FormGI is forming the generalized inverse of G from B-inverse, IUseBI=4.
 Internal  Forces:  Max     0.001718840 RMS     0.001403489
 Search for a local minimum.
 Step number   2 out of a maximum of   20
 All quantities printed in internal units (Hartrees-Bohrs-Radians)
 Mixed Optimization -- RFO/linear search
 Update second derivatives using D2CorX and points    1    2
 DE= -4.76D-04 DEPred=-5.05D-04 R= 9.42D-01
 TightC=F SS=  1.41D+00  RLast= 6.73D-02 DXNew= 5.0454D-01 2.0180D-01
 Trust test= 9.42D-01 RLast= 6.73D-02 DXMaxT set to 3.00D-01
 The second derivative matrix:
                          R1        R2        A1
           R1           0.56278
           R2           0.02901   0.56278
           A1           0.01011   0.01011   0.15505
 ITU=  1  0
 Use linear search instead of GDIIS.
     Eigenvalues ---    0.15459   0.53377   0.59226
 RFO step:  Lambda=-5.93793183D-06 EMin= 1.54587588D-01
 Quartic linear search produced a step of -0.06075.
 Iteration  1 RMS(Cart)=  0.00195060 RMS(Int)=  0.00000040
 Iteration  2 RMS(Cart)=  0.00000041 RMS(Int)=  0.00000000
 ClnCor:  largest displacement from symmetrization is 1.60D-15 for atom     3.
 Variable       Old X    -DE/DX   Delta X   Delta X   Delta X     New X
                                 (Linear)    (Quad)   (Total)
    R1        1.81379   0.00172   0.00117   0.00173   0.00289   1.81669
    R2        1.81379   0.00172   0.00117   0.00173   0.00289   1.81669
    A1        1.84911   0.00002   0.00374  -0.00418  -0.00044   1.84867
         Item               Value     Threshold  Converged?
 Maximum Force            0.001719     0.000450     NO 
 RMS     Force            0.001403     0.000300     NO 
 Maximum Displacement     0.002088     0.001800     NO 
 RMS     Displacement     0.001950     0.001200     NO 
 Predicted change in Energy=-4.992970D-06
 GradGradGradGradGradGradGradGradGradGradGradGradGradGradGradGradGradGrad

                          Input orientation:                          
 ---------------------------------------------------------------------
 Center     Atomic      Atomic             Coordinates (Angstroms)
 Number     Number       Type             X           Y           Z
 ---------------------------------------------------------------------
      1          8           0       -4.587094    2.827257   -0.010353
      2          1           0       -3.626206    2.828969    0.019373
      3          1           0       -4.879314    2.879930    0.903992
 ---------------------------------------------------------------------
                    Distance matrix (angstroms):
                    1          2          3
     1  O    0.000000
     2  H    0.961350   0.000000
     3  H    0.961350   1.534740   0.000000
 Stoichiometry    H2O
 Framework group  C2V[C2(O),SGV(H2)]
 Deg. of freedom     2
 Full point group                 C2V     NOp   4
 Largest Abelian subgroup         C2V     NOp   4
 Largest concise Abelian subgroup C2      NOp   2
                         Standard orientation:                         
 ---------------------------------------------------------------------
 Center     Atomic      Atomic             Coordinates (Angstroms)
 Number     Number       Type             X           Y           Z
 ---------------------------------------------------------------------
      1          8           0        0.000000    0.000000    0.115816
      2          1           0       -0.000000    0.767370   -0.463266
      3          1           0       -0.000000   -0.767370   -0.463266
 ---------------------------------------------------------------------
 Rotational constants (GHZ):         841.9124304         425.7869801         282.7763019
 Standard basis: Aug-CC-pVTZ (5D, 7F)
 There are    42 symmetry adapted cartesian basis functions of A1  symmetry.
 There are    12 symmetry adapted cartesian basis functions of A2  symmetry.
 There are    20 symmetry adapted cartesian basis functions of B1  symmetry.
 There are    31 symmetry adapted cartesian basis functions of B2  symmetry.
 There are    35 symmetry adapted basis functions of A1  symmetry.
 There are    12 symmetry adapted basis functions of A2  symmetry.
 There are    18 symmetry adapted basis functions of B1  symmetry.
 There are    27 symmetry adapted basis functions of B2  symmetry.
    92 basis functions,   126 primitive gaussians,   105 cartesian basis functions
     5 alpha electrons        5 beta electrons
       nuclear repulsion energy         9.1520378520 Hartrees.
 NAtoms=    3 NActive=    3 NUniq=    2 SFac= 2.25D+00 NAtFMM=   60 NAOKFM=F Big=F
 Integral buffers will be    131072 words long.
 Raffenetti 2 integral format.
 Two-electron integral symmetry is turned on.
 One-electron integrals computed using PRISM.
 NBasis=    92 RedAO= T EigKep=  3.86D-04  NBF=    35    12    18    27
 NBsUse=    92 1.00D-06 EigRej= -1.00D+00 NBFU=    35    12    18    27
 Initial guess from the checkpoint file:  "H2O_1et.chk"
 B after Tr=     0.000000   -0.000000    0.000000
         Rot=    1.000000    0.000000   -0.000000   -0.000000 Ang=   0.00 deg.
 Initial guess orbital symmetries:
       Occupied  (A1) (A1) (B2) (A1) (B1)
       Virtual   (A1) (B2) (A1) (B1) (A1) (B2) (B2) (A1) (A2) (B1)
                 (A1) (B2) (A1) (B2) (B2) (A1) (A1) (B1) (A2) (A1)
                 (B1) (A1) (B1) (B2) (A2) (B2) (A1) (A1) (B2) (B1)
                 (B2) (A1) (A2) (B2) (A2) (A1) (B1) (A1) (B2) (B2)
                 (A1) (B1) (A2) (A1) (A1) (B1) (B2) (A1) (B2) (B1)
                 (A1) (B2) (A2) (B2) (A1) (B1) (A2) (A1) (B2) (B1)
                 (A2) (B1) (A1) (B2) (A1) (B2) (A2) (B2) (B2) (A1)
                 (B1) (A1) (A1) (B2) (B1) (A1) (B1) (B1) (A1) (A2)
                 (B2) (A2) (A1) (B2) (A1) (B2) (A1)
 Keep R1 ints in memory in symmetry-blocked form, NReq=20341797.
 Requested convergence on RMS density matrix=1.00D-08 within 128 cycles.
 Requested convergence on MAX density matrix=1.00D-06.
 Requested convergence on             energy=1.00D-06.
 No special actions if energy rises.
 SCF Done:  E(RMN15) =  -76.3840403863     A.U. after    7 cycles
            NFock=  7  Conv=0.16D-08     -V/T= 2.0090
 Calling FoFJK, ICntrl=      2127 FMM=F ISym2X=1 I1Cent= 0 IOpClX= 0 NMat=1 NMatS=1 NMatT=0.
 ***** Axes restored to original set *****
 -------------------------------------------------------------------
 Center     Atomic                   Forces (Hartrees/Bohr)
 Number     Number              X              Y              Z
 -------------------------------------------------------------------
      1        8          -0.000137677   -0.000011198   -0.000194381
      2        1           0.000136532    0.000002846    0.000049403
      3        1           0.000001145    0.000008352    0.000144978
 -------------------------------------------------------------------
 Cartesian Forces:  Max     0.000194381 RMS     0.000104904

 GradGradGradGradGradGradGradGradGradGradGradGradGradGradGradGradGradGrad
 Berny optimization.
 Using GEDIIS/GDIIS optimizer.
 FormGI is forming the generalized inverse of G from B-inverse, IUseBI=4.
 Internal  Forces:  Max     0.000137999 RMS     0.000122256
 Search for a local minimum.
 Step number   3 out of a maximum of   20
 All quantities printed in internal units (Hartrees-Bohrs-Radians)
 Mixed Optimization -- En-DIIS/RFO-DIIS
 Update second derivatives using D2CorX and points    1    2    3
 DE= -5.38D-06 DEPred=-4.99D-06 R= 1.08D+00
 TightC=F SS=  1.41D+00  RLast= 4.12D-03 DXNew= 5.0454D-01 1.2352D-02
 Trust test= 1.08D+00 RLast= 4.12D-03 DXMaxT set to 3.00D-01
 The second derivative matrix:
                          R1        R2        A1
           R1           0.54219
           R2           0.00842   0.54219
           A1           0.02982   0.02982   0.15420
 ITU=  1  1  0
 Use linear search instead of GDIIS.
     Eigenvalues ---    0.14976   0.53377   0.55504
 RFO step:  Lambda=-5.53065894D-08 EMin= 1.49761843D-01
 Quartic linear search produced a step of  0.09222.
 Iteration  1 RMS(Cart)=  0.00031831 RMS(Int)=  0.00000010
 Iteration  2 RMS(Cart)=  0.00000011 RMS(Int)=  0.00000000
 ClnCor:  largest displacement from symmetrization is 4.05D-15 for atom     1.
 Variable       Old X    -DE/DX   Delta X   Delta X   Delta X     New X
                                 (Linear)    (Quad)   (Total)
    R1        1.81669   0.00014   0.00027   0.00002   0.00029   1.81697
    R2        1.81669   0.00014   0.00027   0.00002   0.00029   1.81697
    A1        1.84867  -0.00008  -0.00004  -0.00060  -0.00064   1.84803
         Item               Value     Threshold  Converged?
 Maximum Force            0.000138     0.000450     YES
 RMS     Force            0.000122     0.000300     YES
 Maximum Displacement     0.000348     0.001800     YES
 RMS     Displacement     0.000318     0.001200     YES
 Predicted change in Energy=-6.582425D-08
 Optimization completed.
    -- Stationary point found.
                           ----------------------------
                           !   Optimized Parameters   !
                           ! (Angstroms and Degrees)  !
 --------------------------                            --------------------------
 ! Name  Definition              Value          Derivative Info.                !
 --------------------------------------------------------------------------------
 ! R1    R(1,2)                  0.9613         -DE/DX =    0.0001              !
 ! R2    R(1,3)                  0.9613         -DE/DX =    0.0001              !
 ! A1    A(2,1,3)              105.9212         -DE/DX =   -0.0001              !
 --------------------------------------------------------------------------------
 GradGradGradGradGradGradGradGradGradGradGradGradGradGradGradGradGradGrad

                          Input orientation:                          
 ---------------------------------------------------------------------
 Center     Atomic      Atomic             Coordinates (Angstroms)
 Number     Number       Type             X           Y           Z
 ---------------------------------------------------------------------
      1          8           0       -4.587094    2.827257   -0.010353
      2          1           0       -3.626206    2.828969    0.019373
      3          1           0       -4.879314    2.879930    0.903992
 ---------------------------------------------------------------------
                    Distance matrix (angstroms):
                    1          2          3
     1  O    0.000000
     2  H    0.961350   0.000000
     3  H    0.961350   1.534740   0.000000
 Stoichiometry    H2O
 Framework group  C2V[C2(O),SGV(H2)]
 Deg. of freedom     2
 Full point group                 C2V     NOp   4
 Largest Abelian subgroup         C2V     NOp   4
 Largest concise Abelian subgroup C2      NOp   2
                         Standard orientation:                         
 ---------------------------------------------------------------------
 Center     Atomic      Atomic             Coordinates (Angstroms)
 Number     Number       Type             X           Y           Z
 ---------------------------------------------------------------------
      1          8           0        0.000000    0.000000    0.115816
      2          1           0        0.000000    0.767370   -0.463266
      3          1           0       -0.000000   -0.767370   -0.463266
 ---------------------------------------------------------------------
 Rotational constants (GHZ):         841.9124304         425.7869801         282.7763019

 **********************************************************************

            Population analysis using the SCF Density.

 **********************************************************************

 Orbital symmetries:
       Occupied  (A1) (A1) (B2) (A1) (B1)
       Virtual   (A1) (B2) (A1) (B1) (A1) (B2) (B2) (A1) (A2) (B1)
                 (A1) (B2) (A1) (B2) (B2) (A1) (A1) (B1) (A2) (A1)
                 (B1) (A1) (B1) (B2) (A2) (B2) (A1) (A1) (B2) (B1)
                 (B2) (A1) (A2) (B2) (A2) (A1) (B1) (A1) (B2) (B2)
                 (A1) (B1) (A2) (A1) (A1) (B1) (B2) (A1) (B2) (B1)
                 (A1) (B2) (A2) (B2) (A1) (B1) (A2) (A1) (B2) (B1)
                 (A2) (B1) (A1) (B2) (A1) (B2) (A2) (B2) (B2) (A1)
                 (B1) (A1) (A1) (B2) (B1) (A1) (B1) (B1) (A1) (A2)
                 (B2) (A2) (A1) (B2) (A1) (B2) (A1)
 The electronic state is 1-A1.
 Alpha  occ. eigenvalues --  -18.82760  -1.05504  -0.57895  -0.43860  -0.37069
 Alpha virt. eigenvalues --    0.02184   0.05094   0.11274   0.15231   0.15666
 Alpha virt. eigenvalues --    0.15855   0.20646   0.22926   0.25307   0.27730
 Alpha virt. eigenvalues --    0.27934   0.36736   0.38349   0.39943   0.52728
 Alpha virt. eigenvalues --    0.56998   0.62191   0.64189   0.64346   0.75169
 Alpha virt. eigenvalues --    0.77306   0.78626   0.82803   0.83335   0.85821
 Alpha virt. eigenvalues --    0.87113   0.89209   0.95366   0.95717   0.98301
 Alpha virt. eigenvalues --    1.07055   1.11609   1.13030   1.17679   1.39859
 Alpha virt. eigenvalues --    1.43669   1.45943   1.63316   1.67803   1.80275
 Alpha virt. eigenvalues --    1.91616   2.03103   2.09268   2.10865   2.16710
 Alpha virt. eigenvalues --    2.20718   2.21947   2.26341   2.47485   2.47884
 Alpha virt. eigenvalues --    2.51991   2.62524   2.65359   3.28487   3.39474
 Alpha virt. eigenvalues --    3.63414   3.70143   3.87886   3.92885   3.98624
 Alpha virt. eigenvalues --    4.04792   4.05934   4.08694   4.12155   4.27728
 Alpha virt. eigenvalues --    4.41235   4.76629   4.78768   4.86675   4.88933
 Alpha virt. eigenvalues --    5.05711   5.23257   5.63436   5.97156   6.12860
 Alpha virt. eigenvalues --    6.29038   6.52366   6.60445   6.64529   6.68042
 Alpha virt. eigenvalues --    6.70291   6.70383   6.85824   7.21740   7.21928
 Alpha virt. eigenvalues --    8.04754  14.41895
          Condensed to atoms (all electrons):
               1          2          3
     1  O    7.819877   0.310122   0.310122
     2  H    0.310122   0.458948   0.010869
     3  H    0.310122   0.010869   0.458948
 Mulliken charges:
               1
     1  O   -0.440121
     2  H    0.220060
     3  H    0.220060
 Sum of Mulliken charges =  -0.00000
 Mulliken charges with hydrogens summed into heavy atoms:
               1
     1  O   -0.000000
 Electronic spatial extent (au):  <R**2>=             19.8829
 Charge=             -0.0000 electrons
 Dipole moment (field-independent basis, Debye):
    X=              0.0000    Y=             -0.0000    Z=             -1.8822  Tot=              1.8822
 Quadrupole moment (field-independent basis, Debye-Ang):
   XX=             -7.6937   YY=             -4.3649   ZZ=             -6.4507
   XY=             -0.0000   XZ=             -0.0000   YZ=             -0.0000
 Traceless Quadrupole moment (field-independent basis, Debye-Ang):
   XX=             -1.5239   YY=              1.8048   ZZ=             -0.2809
   XY=             -0.0000   XZ=             -0.0000   YZ=             -0.0000
 Octapole moment (field-independent basis, Debye-Ang**2):
  XXX=             -0.0000  YYY=              0.0000  ZZZ=             -1.0071  XYY=              0.0000
  XXY=              0.0000  XXZ=             -0.2154  XZZ=             -0.0000  YZZ=              0.0000
  YYZ=             -1.3432  XYZ=              0.0000
 Hexadecapole moment (field-independent basis, Debye-Ang**3):
 XXXX=             -7.3209 YYYY=             -6.4659 ZZZZ=             -7.8145 XXXY=             -0.0000
 XXXZ=             -0.0000 YYYX=             -0.0000 YYYZ=             -0.0000 ZZZX=             -0.0000
 ZZZY=             -0.0000 XXYY=             -2.6404 XXZZ=             -2.5689 YYZZ=             -2.0830
 XXYZ=              0.0000 YYXZ=             -0.0000 ZZXY=             -0.0000
 N-N= 9.152037851966D+00 E-N=-1.987173964340D+02  KE= 7.570117376785D+01
 Symmetry A1   KE= 6.739342678554D+01
 Symmetry A2   KE=-2.300939198887D-21
 Symmetry B1   KE= 4.592773880304D+00
 Symmetry B2   KE= 3.714973102006D+00
 1\1\GINC-NODE111\FOpt\RMN15\Aug-CC-pVTZ\H2O1\EZM0048\22-Nov-2022\0\\#m
 n15/aug-cc-pvtz freq opt\\geometry optimization and freqs for H2O\\0,1
 \O,-4.5870944042,2.8272565474,-0.010352866\H,-3.6262060224,2.828968999
 4,0.019373395\H,-4.8793143516,2.8799295467,0.9039917752\\Version=ES64L
 -G16RevB.01\State=1-A1\HF=-76.3840404\RMSD=1.644e-09\RMSF=1.049e-04\Di
 pole=0.4275311,0.0347728,0.6036171\Quadrupole=0.824942,-1.1282248,0.30
 32828,-0.0420416,-0.7297959,0.08274\PG=C02V [C2(O1),SGV(H2)]\\@


 GOD DOES NOT PLAY WITH DICE.
               -- A. EINSTEIN
 Job cpu time:       0 days  0 hours  1 minutes 29.5 seconds.
 Elapsed time:       0 days  0 hours  0 minutes  8.5 seconds.
 File lengths (MBytes):  RWF=    136 Int=      0 D2E=      0 Chk=     16 Scr=     16
 Normal termination of Gaussian 16 at Tue Nov 22 12:28:40 2022.
 Link1:  Proceeding to internal job step number  2.
 ----------------------------------------------------------------------
 #N Geom=AllCheck Guess=TCheck SCRF=Check GenChk RMN15/Aug-CC-pVTZ Freq
 ----------------------------------------------------------------------
 1/10=4,29=7,30=1,38=1,40=1/1,3;
 2/12=2,40=1/2;
 3/5=16,6=1,7=10,11=2,14=-4,25=1,30=1,70=2,71=2,74=-73,116=1,140=1/1,2,3;
 4/5=101/1;
 5/5=2,38=6,98=1/2;
 8/6=4,10=90,11=11/1;
 11/6=1,8=1,9=11,15=111,16=1/1,2,10;
 10/6=1/2;
 6/7=2,8=2,9=2,10=2,28=1/1;
 7/8=1,10=1,25=1/1,2,3,16;
 1/10=4,30=1/3;
 99//99;
 Structure from the checkpoint file:  "H2O_1et.chk"
 ---------------------------------------
 geometry optimization and freqs for H2O
 ---------------------------------------
 Charge =  0 Multiplicity = 1
 Redundant internal coordinates found in file.  (old form).
 O,0,-4.5870944042,2.8272565474,-0.010352866
 H,0,-3.6262060224,2.8289689994,0.019373395
 H,0,-4.8793143516,2.8799295467,0.9039917752
 Recover connectivity data from disk.

 GradGradGradGradGradGradGradGradGradGradGradGradGradGradGradGradGradGrad
 Berny optimization.
 Initialization pass.
                           ----------------------------
                           !    Initial Parameters    !
                           ! (Angstroms and Degrees)  !
 --------------------------                            --------------------------
 ! Name  Definition              Value          Derivative Info.                !
 --------------------------------------------------------------------------------
 ! R1    R(1,2)                  0.9613         calculate D2E/DX2 analytically  !
 ! R2    R(1,3)                  0.9613         calculate D2E/DX2 analytically  !
 ! A1    A(2,1,3)              105.9212         calculate D2E/DX2 analytically  !
 --------------------------------------------------------------------------------
 Trust Radius=3.00D-01 FncErr=1.00D-07 GrdErr=1.00D-07 EigMax=2.50D+02 EigMin=1.00D-04
 Number of steps in this run=      2 maximum allowed number of steps=      2.
 GradGradGradGradGradGradGradGradGradGradGradGradGradGradGradGradGradGrad

                          Input orientation:                          
 ---------------------------------------------------------------------
 Center     Atomic      Atomic             Coordinates (Angstroms)
 Number     Number       Type             X           Y           Z
 ---------------------------------------------------------------------
      1          8           0       -4.587094    2.827257   -0.010353
      2          1           0       -3.626206    2.828969    0.019373
      3          1           0       -4.879314    2.879930    0.903992
 ---------------------------------------------------------------------
                    Distance matrix (angstroms):
                    1          2          3
     1  O    0.000000
     2  H    0.961350   0.000000
     3  H    0.961350   1.534740   0.000000
 Stoichiometry    H2O
 Framework group  C2V[C2(O),SGV(H2)]
 Deg. of freedom     2
 Full point group                 C2V     NOp   4
 Largest Abelian subgroup         C2V     NOp   4
 Largest concise Abelian subgroup C2      NOp   2
                         Standard orientation:                         
 ---------------------------------------------------------------------
 Center     Atomic      Atomic             Coordinates (Angstroms)
 Number     Number       Type             X           Y           Z
 ---------------------------------------------------------------------
      1          8           0        0.000000    0.000000    0.115816
      2          1           0        0.000000    0.767370   -0.463266
      3          1           0       -0.000000   -0.767370   -0.463266
 ---------------------------------------------------------------------
 Rotational constants (GHZ):         841.9124304         425.7869801         282.7763019
 Standard basis: Aug-CC-pVTZ (5D, 7F)
 There are    42 symmetry adapted cartesian basis functions of A1  symmetry.
 There are    12 symmetry adapted cartesian basis functions of A2  symmetry.
 There are    20 symmetry adapted cartesian basis functions of B1  symmetry.
 There are    31 symmetry adapted cartesian basis functions of B2  symmetry.
 There are    35 symmetry adapted basis functions of A1  symmetry.
 There are    12 symmetry adapted basis functions of A2  symmetry.
 There are    18 symmetry adapted basis functions of B1  symmetry.
 There are    27 symmetry adapted basis functions of B2  symmetry.
    92 basis functions,   126 primitive gaussians,   105 cartesian basis functions
     5 alpha electrons        5 beta electrons
       nuclear repulsion energy         9.1520378520 Hartrees.
 NAtoms=    3 NActive=    3 NUniq=    2 SFac= 2.25D+00 NAtFMM=   60 NAOKFM=F Big=F
 Integral buffers will be    131072 words long.
 Raffenetti 2 integral format.
 Two-electron integral symmetry is turned on.
 One-electron integrals computed using PRISM.
 NBasis=    92 RedAO= T EigKep=  3.86D-04  NBF=    35    12    18    27
 NBsUse=    92 1.00D-06 EigRej= -1.00D+00 NBFU=    35    12    18    27
 Initial guess from the checkpoint file:  "H2O_1et.chk"
 B after Tr=     0.000000   -0.000000    0.000000
         Rot=    1.000000   -0.000000    0.000000    0.000000 Ang=   0.00 deg.
 Initial guess orbital symmetries:
       Occupied  (A1) (A1) (B2) (A1) (B1)
       Virtual   (A1) (B2) (A1) (B1) (A1) (B2) (B2) (A1) (A2) (B1)
                 (A1) (B2) (A1) (B2) (B2) (A1) (A1) (B1) (A2) (A1)
                 (B1) (A1) (B1) (B2) (A2) (B2) (A1) (A1) (B2) (B1)
                 (B2) (A1) (A2) (B2) (A2) (A1) (B1) (A1) (B2) (B2)
                 (A1) (B1) (A2) (A1) (A1) (B1) (B2) (A1) (B2) (B1)
                 (A1) (B2) (A2) (B2) (A1) (B1) (A2) (A1) (B2) (B1)
                 (A2) (B1) (A1) (B2) (A1) (B2) (A2) (B2) (B2) (A1)
                 (B1) (A1) (A1) (B2) (B1) (A1) (B1) (B1) (A1) (A2)
                 (B2) (A2) (A1) (B2) (A1) (B2) (A1)
 Keep R1 ints in memory in symmetry-blocked form, NReq=20341797.
 Requested convergence on RMS density matrix=1.00D-08 within 128 cycles.
 Requested convergence on MAX density matrix=1.00D-06.
 Requested convergence on             energy=1.00D-06.
 No special actions if energy rises.
 SCF Done:  E(RMN15) =  -76.3840403863     A.U. after    1 cycles
            NFock=  1  Conv=0.21D-09     -V/T= 2.0090
 DoSCS=F DFT=T ScalE2(SS,OS)=  1.000000  1.000000
 Range of M.O.s used for correlation:     1    92
 NBasis=    92 NAE=     5 NBE=     5 NFC=     0 NFV=     0
 NROrb=     92 NOA=     5 NOB=     5 NVA=    87 NVB=    87

 **** Warning!!: The largest alpha MO coefficient is  0.15317134D+02

 Symmetrizing basis deriv contribution to polar:
 IMax=3 JMax=2 DiffMx= 0.00D+00
 G2DrvN: will do     4 centers at a time, making    1 passes.
 Calling FoFCou, ICntrl=  3107 FMM=F I1Cent=   0 AccDes= 0.00D+00.
 End of G2Drv F.D. properties file   721 does not exist.
 End of G2Drv F.D. properties file   722 does not exist.
 End of G2Drv F.D. properties file   788 does not exist.
          IDoAtm=111
          Differentiating once with respect to electric field.
                with respect to dipole field.
          Differentiating once with respect to nuclear coordinates.
 Keep R1 ints in memory in symmetry-blocked form, NReq=20302819.
          There are     9 degrees of freedom in the 1st order CPHF.  IDoFFX=4 NUNeed=     9.
      9 vectors produced by pass  0 Test12= 4.83D-15 1.11D-08 XBig12= 3.61D+00 8.83D-01.
 AX will form     9 AO Fock derivatives at one time.
      9 vectors produced by pass  1 Test12= 4.83D-15 1.11D-08 XBig12= 5.10D-01 2.35D-01.
      9 vectors produced by pass  2 Test12= 4.83D-15 1.11D-08 XBig12= 1.24D-02 3.63D-02.
      9 vectors produced by pass  3 Test12= 4.83D-15 1.11D-08 XBig12= 8.27D-05 2.26D-03.
      9 vectors produced by pass  4 Test12= 4.83D-15 1.11D-08 XBig12= 1.34D-06 4.82D-04.
      9 vectors produced by pass  5 Test12= 4.83D-15 1.11D-08 XBig12= 5.55D-09 2.68D-05.
      5 vectors produced by pass  6 Test12= 4.83D-15 1.11D-08 XBig12= 2.17D-11 1.19D-06.
      2 vectors produced by pass  7 Test12= 4.83D-15 1.11D-08 XBig12= 5.55D-14 6.39D-08.
 InvSVY:  IOpt=1 It=  1 EMax= 1.62D-16
 Solved reduced A of dimension    61 with     9 vectors.
 Isotropic polarizability for W=    0.000000        9.48 Bohr**3.
 End of Minotr F.D. properties file   721 does not exist.
 End of Minotr F.D. properties file   722 does not exist.
 End of Minotr F.D. properties file   788 does not exist.

 **********************************************************************

            Population analysis using the SCF Density.

 **********************************************************************

 Orbital symmetries:
       Occupied  (A1) (A1) (B2) (A1) (B1)
       Virtual   (A1) (B2) (A1) (B1) (A1) (B2) (B2) (A1) (A2) (B1)
                 (A1) (B2) (A1) (B2) (B2) (A1) (A1) (B1) (A2) (A1)
                 (B1) (A1) (B1) (B2) (A2) (B2) (A1) (A1) (B2) (B1)
                 (B2) (A1) (A2) (B2) (A2) (A1) (B1) (A1) (B2) (B2)
                 (A1) (B1) (A2) (A1) (A1) (B1) (B2) (A1) (B2) (B1)
                 (A1) (B2) (A2) (B2) (A1) (B1) (A2) (A1) (B2) (B1)
                 (A2) (B1) (A1) (B2) (A1) (B2) (A2) (B2) (B2) (A1)
                 (B1) (A1) (A1) (B2) (B1) (A1) (B1) (B1) (A1) (A2)
                 (B2) (A2) (A1) (B2) (A1) (B2) (A1)
 The electronic state is 1-A1.
 Alpha  occ. eigenvalues --  -18.82760  -1.05504  -0.57895  -0.43860  -0.37069
 Alpha virt. eigenvalues --    0.02184   0.05094   0.11274   0.15231   0.15666
 Alpha virt. eigenvalues --    0.15855   0.20646   0.22926   0.25307   0.27730
 Alpha virt. eigenvalues --    0.27934   0.36736   0.38349   0.39943   0.52728
 Alpha virt. eigenvalues --    0.56998   0.62191   0.64189   0.64346   0.75169
 Alpha virt. eigenvalues --    0.77306   0.78626   0.82803   0.83335   0.85821
 Alpha virt. eigenvalues --    0.87113   0.89209   0.95366   0.95717   0.98301
 Alpha virt. eigenvalues --    1.07055   1.11609   1.13030   1.17679   1.39859
 Alpha virt. eigenvalues --    1.43669   1.45943   1.63316   1.67803   1.80275
 Alpha virt. eigenvalues --    1.91616   2.03103   2.09268   2.10865   2.16710
 Alpha virt. eigenvalues --    2.20718   2.21947   2.26341   2.47485   2.47884
 Alpha virt. eigenvalues --    2.51991   2.62524   2.65359   3.28487   3.39474
 Alpha virt. eigenvalues --    3.63414   3.70143   3.87886   3.92885   3.98624
 Alpha virt. eigenvalues --    4.04792   4.05934   4.08694   4.12155   4.27728
 Alpha virt. eigenvalues --    4.41235   4.76629   4.78768   4.86675   4.88933
 Alpha virt. eigenvalues --    5.05711   5.23257   5.63436   5.97156   6.12860
 Alpha virt. eigenvalues --    6.29038   6.52366   6.60445   6.64529   6.68042
 Alpha virt. eigenvalues --    6.70291   6.70383   6.85824   7.21740   7.21928
 Alpha virt. eigenvalues --    8.04754  14.41895
          Condensed to atoms (all electrons):
               1          2          3
     1  O    7.819877   0.310122   0.310122
     2  H    0.310122   0.458948   0.010869
     3  H    0.310122   0.010869   0.458948
 Mulliken charges:
               1
     1  O   -0.440121
     2  H    0.220060
     3  H    0.220060
 Sum of Mulliken charges =  -0.00000
 Mulliken charges with hydrogens summed into heavy atoms:
               1
     1  O   -0.000000
 APT charges:
               1
     1  O   -0.528525
     2  H    0.264263
     3  H    0.264263
 Sum of APT charges =  -0.00000
 APT charges with hydrogens summed into heavy atoms:
               1
     1  O   -0.000000
 Electronic spatial extent (au):  <R**2>=             19.8829
 Charge=             -0.0000 electrons
 Dipole moment (field-independent basis, Debye):
    X=             -0.0000    Y=              0.0000    Z=             -1.8822  Tot=              1.8822
 Quadrupole moment (field-independent basis, Debye-Ang):
   XX=             -7.6937   YY=             -4.3649   ZZ=             -6.4507
   XY=              0.0000   XZ=              0.0000   YZ=             -0.0000
 Traceless Quadrupole moment (field-independent basis, Debye-Ang):
   XX=             -1.5239   YY=              1.8048   ZZ=             -0.2809
   XY=              0.0000   XZ=              0.0000   YZ=             -0.0000
 Octapole moment (field-independent basis, Debye-Ang**2):
  XXX=             -0.0000  YYY=              0.0000  ZZZ=             -1.0071  XYY=             -0.0000
  XXY=              0.0000  XXZ=             -0.2154  XZZ=             -0.0000  YZZ=              0.0000
  YYZ=             -1.3432  XYZ=             -0.0000
 Hexadecapole moment (field-independent basis, Debye-Ang**3):
 XXXX=             -7.3209 YYYY=             -6.4659 ZZZZ=             -7.8145 XXXY=             -0.0000
 XXXZ=             -0.0000 YYYX=             -0.0000 YYYZ=             -0.0000 ZZZX=             -0.0000
 ZZZY=              0.0000 XXYY=             -2.6404 XXZZ=             -2.5689 YYZZ=             -2.0830
 XXYZ=              0.0000 YYXZ=             -0.0000 ZZXY=             -0.0000
 N-N= 9.152037851966D+00 E-N=-1.987173963711D+02  KE= 7.570117373415D+01
 Symmetry A1   KE= 6.739342674060D+01
 Symmetry A2   KE=-1.418849562536D-20
 Symmetry B1   KE= 4.592773885370D+00
 Symmetry B2   KE= 3.714973108175D+00
  Exact polarizability:   8.937   0.000  10.058  -0.000  -0.000   9.440
 Approx polarizability:   8.428   0.000  10.919   0.000  -0.000   9.989
 Calling FoFJK, ICntrl=    100127 FMM=F ISym2X=1 I1Cent= 0 IOpClX= 0 NMat=1 NMatS=1 NMatT=0.
 Full mass-weighted force constant matrix:
 Low frequencies ---  -80.6865  -67.8595  -57.5221   -0.0016   -0.0012    0.0013
 Low frequencies --- 1582.7103 3868.7753 3978.1096
 Diagonal vibrational polarizability:
        0.0000000       0.1275007       0.8808674
 Harmonic frequencies (cm**-1), IR intensities (KM/Mole), Raman scattering
 activities (A**4/AMU), depolarization ratios for plane and unpolarized
 incident light, reduced masses (AMU), force constants (mDyne/A),
 and normal coordinates:
                      1                      2                      3
                     A1                     A1                     B2
 Frequencies --   1582.7103              3868.7753              3978.1096
 Red. masses --      1.0837                 1.0442                 1.0833
 Frc consts  --      1.5994                 9.2086                10.1004
 IR Inten    --     80.8576                 6.7881                74.9778
  Atom  AN      X      Y      Z        X      Y      Z        X      Y      Z
     1   8    -0.00   0.00  -0.07     0.00   0.00   0.05    -0.00  -0.07   0.00
     2   1     0.00   0.42   0.56     0.00   0.59  -0.39     0.00   0.56  -0.42
     3   1     0.00  -0.42   0.56    -0.00  -0.59  -0.39     0.00   0.56   0.42

 -------------------
 - Thermochemistry -
 -------------------
 Temperature   298.150 Kelvin.  Pressure   1.00000 Atm.
 Atom     1 has atomic number  8 and mass  15.99491
 Atom     2 has atomic number  1 and mass   1.00783
 Atom     3 has atomic number  1 and mass   1.00783
 Molecular mass:    18.01056 amu.
 Principal axes and moments of inertia in atomic units:
                           1         2         3
     Eigenvalues --     2.14362   4.23860   6.38222
           X            0.00000   0.00000   1.00000
           Y            1.00000   0.00000  -0.00000
           Z           -0.00000   1.00000  -0.00000
 This molecule is an asymmetric top.
 Rotational symmetry number  2.
 Rotational temperatures (Kelvin)     40.40543    20.43455    13.57112
 Rotational constants (GHZ):         841.91243   425.78698   282.77630
 Zero-point vibrational energy      56401.5 (Joules/Mol)
                                   13.48028 (Kcal/Mol)
 Vibrational temperatures:   2277.17  5566.30  5723.61
          (Kelvin)
 
 Zero-point correction=                           0.021482 (Hartree/Particle)
 Thermal correction to Energy=                    0.024318
 Thermal correction to Enthalpy=                  0.025262
 Thermal correction to Gibbs Free Energy=         0.003845
 Sum of electronic and zero-point Energies=            -76.362558
 Sum of electronic and thermal Energies=               -76.359722
 Sum of electronic and thermal Enthalpies=             -76.358778
 Sum of electronic and thermal Free Energies=          -76.380195
 
                     E (Thermal)             CV                S
                      KCal/Mol        Cal/Mol-Kelvin    Cal/Mol-Kelvin
 Total                   15.260              6.018             45.076
 Electronic               0.000              0.000              0.000
 Translational            0.889              2.981             34.608
 Rotational               0.889              2.981             10.460
 Vibrational             13.482              0.056              0.008
                       Q            Log10(Q)             Ln(Q)
 Total Bot       0.170343D-01         -1.768676         -4.072526
 Total V=0       0.129551D+09          8.112441         18.679586
 Vib (Bot)       0.131551D-09         -9.880907        -22.751630
 Vib (V=0)       0.100048D+01          0.000209          0.000482
 Electronic      0.100000D+01          0.000000          0.000000
 Translational   0.300431D+07          6.477745         14.915559
 Rotational      0.431010D+02          1.634487          3.763545
 ***** Axes restored to original set *****
 -------------------------------------------------------------------
 Center     Atomic                   Forces (Hartrees/Bohr)
 Number     Number              X              Y              Z
 -------------------------------------------------------------------
      1        8          -0.000137676   -0.000011198   -0.000194381
      2        1           0.000136531    0.000002846    0.000049403
      3        1           0.000001145    0.000008352    0.000144978
 -------------------------------------------------------------------
 Cartesian Forces:  Max     0.000194381 RMS     0.000104904
 FormGI is forming the generalized inverse of G from B-inverse, IUseBI=4.

 GradGradGradGradGradGradGradGradGradGradGradGradGradGradGradGradGradGrad
 Berny optimization.
 Internal  Forces:  Max     0.000137999 RMS     0.000122256
 Search for a local minimum.
 Step number   1 out of a maximum of    2
 All quantities printed in internal units (Hartrees-Bohrs-Radians)
 Second derivative matrix not updated -- analytic derivatives used.
 The second derivative matrix:
                          R1        R2        A1
           R1           0.55318
           R2          -0.00551   0.55318
           A1           0.02939   0.02939   0.14921
 ITU=  0
     Eigenvalues ---    0.14492   0.55196   0.55869
 Angle between quadratic step and forces=  35.68 degrees.
 Linear search not attempted -- first point.
 Iteration  1 RMS(Cart)=  0.00032737 RMS(Int)=  0.00000010
 Iteration  2 RMS(Cart)=  0.00000011 RMS(Int)=  0.00000000
 ClnCor:  largest displacement from symmetrization is 6.04D-15 for atom     3.
 Variable       Old X    -DE/DX   Delta X   Delta X   Delta X     New X
                                 (Linear)    (Quad)   (Total)
    R1        1.81669   0.00014   0.00000   0.00029   0.00029   1.81698
    R2        1.81669   0.00014   0.00000   0.00029   0.00029   1.81698
    A1        1.84867  -0.00008   0.00000  -0.00066  -0.00066   1.84801
         Item               Value     Threshold  Converged?
 Maximum Force            0.000138     0.000450     YES
 RMS     Force            0.000122     0.000300     YES
 Maximum Displacement     0.000356     0.001800     YES
 RMS     Displacement     0.000327     0.001200     YES
 Predicted change in Energy=-6.697211D-08
 Optimization completed.
    -- Stationary point found.
                           ----------------------------
                           !   Optimized Parameters   !
                           ! (Angstroms and Degrees)  !
 --------------------------                            --------------------------
 ! Name  Definition              Value          Derivative Info.                !
 --------------------------------------------------------------------------------
 ! R1    R(1,2)                  0.9613         -DE/DX =    0.0001              !
 ! R2    R(1,3)                  0.9613         -DE/DX =    0.0001              !
 ! A1    A(2,1,3)              105.9212         -DE/DX =   -0.0001              !
 --------------------------------------------------------------------------------
 GradGradGradGradGradGradGradGradGradGradGradGradGradGradGradGradGradGrad


 ----------------------------------------------------------------------

 Electric dipole moment (input orientation):
 (Debye = 10**-18 statcoulomb cm , SI units = C m)
                  (au)            (Debye)         (10**-30 SI)
   Tot        0.740504D+00      0.188217D+01      0.627825D+01
   x          0.427531D+00      0.108668D+01      0.362476D+01
   y          0.347728D-01      0.883836D-01      0.294816D+00
   z          0.603617D+00      0.153424D+01      0.511768D+01

 Dipole polarizability, Alpha (input orientation).
 (esu units = cm**3 , SI units = C**2 m**2 J**-1)
 Alpha(0;0):
               (au)            (10**-24 esu)      (10**-40 SI)
   iso        0.947820D+01      0.140452D+01      0.156274D+01
   aniso      0.972222D+00      0.144068D+00      0.160298D+00
   xx         0.985177D+01      0.145988D+01      0.162434D+01
   yx        -0.167353D-01     -0.247992D-02     -0.275928D-02
   yy         0.893918D+01      0.132465D+01      0.147387D+01
   zx        -0.290507D+00     -0.430487D-01     -0.478981D-01
   zy         0.407189D-01      0.603392D-02      0.671364D-02
   zz         0.964366D+01      0.142904D+01      0.159003D+01

 ----------------------------------------------------------------------

 Dipole orientation:
     8         -7.14499113          5.46664154         -4.76975053
     1         -5.69511456          5.44011431         -3.67544363
     1         -8.59486769          5.49316877         -3.67544363

 Electric dipole moment (dipole orientation):
 (Debye = 10**-18 statcoulomb cm , SI units = C m)
                  (au)            (Debye)         (10**-30 SI)
   Tot        0.740504D+00      0.188217D+01      0.627825D+01
   x          0.000000D+00      0.000000D+00      0.000000D+00
   y          0.000000D+00      0.000000D+00      0.000000D+00
   z          0.740504D+00      0.188217D+01      0.627825D+01

 Dipole polarizability, Alpha (dipole orientation).
 (esu units = cm**3 , SI units = C**2 m**2 J**-1)
 Alpha(0;0):
               (au)            (10**-24 esu)      (10**-40 SI)
   iso        0.947820D+01      0.140452D+01      0.156274D+01
   aniso      0.972222D+00      0.144068D+00      0.160298D+00
   xx         0.100572D+02      0.149032D+01      0.165820D+01
   yx        -0.204977D-01     -0.303744D-02     -0.337961D-02
   yy         0.893720D+01      0.132436D+01      0.147355D+01
   zx         0.000000D+00      0.000000D+00      0.000000D+00
   zy         0.000000D+00      0.000000D+00      0.000000D+00
   zz         0.944025D+01      0.139890D+01      0.155649D+01

 ----------------------------------------------------------------------
 1\1\GINC-NODE111\Freq\RMN15\Aug-CC-pVTZ\H2O1\EZM0048\22-Nov-2022\0\\#N
  Geom=AllCheck Guess=TCheck SCRF=Check GenChk RMN15/Aug-CC-pVTZ Freq\\
 geometry optimization and freqs for H2O\\0,1\O,-4.5870944042,2.8272565
 474,-0.010352866\H,-3.6262060224,2.8289689994,0.019373395\H,-4.8793143
 516,2.8799295467,0.9039917752\\Version=ES64L-G16RevB.01\State=1-A1\HF=
 -76.3840404\RMSD=2.096e-10\RMSF=1.049e-04\ZeroPoint=0.0214822\Thermal=
 0.0243182\Dipole=0.4275311,0.0347728,0.6036171\DipoleDeriv=-0.4794982,
 0.0040793,0.0708128,0.0040793,-0.6759163,0.0142044,0.0708128,0.0142044
 ,-0.4301619,0.1808448,-0.0036403,-0.0631924,-0.0028344,0.338153,-0.003
 7201,-0.0492027,-0.0037201,0.2737905,0.2986535,-0.000439,-0.0076204,-0
 .0012449,0.3377633,-0.0104843,-0.0216101,-0.0104843,0.1563714\Polar=9.
 851768,-0.0167353,8.9391756,-0.2905069,0.0407189,9.6436648\Quadrupole=
 0.824942,-1.1282247,0.3032827,-0.0420416,-0.7297959,0.08274\PG=C02V [C
 2(O1),SGV(H2)]\NImag=0\\0.62465522,-0.00708738,0.00133834,-0.12302904,
 0.03088787,0.53573802,-0.53847659,0.00060449,0.01049323,0.55370394,-0.
 00271383,0.00007885,-0.00245918,-0.00002186,-0.00004989,-0.04710903,-0
 .00245918,-0.04246805,-0.00037949,0.00257224,0.04445316,-0.08617863,0.
 00648289,0.11253581,-0.01522735,0.00273569,0.04748853,0.10140598,0.009
 80121,-0.00141719,-0.02842869,-0.00058263,-0.00002895,-0.00011306,-0.0
 0921858,0.00144615,0.17013807,-0.02842869,-0.49326997,-0.01011374,-0.0
 0011306,-0.00198511,-0.16002433,0.02854176,0.49525508\\0.00013768,0.00
 001120,0.00019438,-0.00013653,-0.00000285,-0.00004940,-0.00000115,-0.0
 0000835,-0.00014498\\\@


 THERE IS AN OLD, OLD RECIPE IN MAINE FOR STEWING COOT. PLACE THE
 BIRD IN A KETTLE OF WATER WITH A RED BUILDING BRICK FREE OF MORTAR AND
 BLEMISHES. PARBOIL THE COOT AND BRICK TOGETHER FOR THREE HOURS.
 POUR OFF THE WATER, REFILL THE KETTLE, AND AGAIN PARBOIL FOR THREE HOURS.
 ONCE AGAIN POUR OFF THE WATER, FOR THE LAST TIME ADD FRESH WATER,
 AND LET THE COOT AND BRICK SIMMER TOGETHER OVERNIGHT. IN THE MORNING,
 THROW AWAY THE COOT AND EAT THE BRICK.
 Job cpu time:       0 days  0 hours  1 minutes 15.3 seconds.
 Elapsed time:       0 days  0 hours  0 minutes  6.8 seconds.
 File lengths (MBytes):  RWF=    136 Int=      0 D2E=      0 Chk=     16 Scr=     16
 Normal termination of Gaussian 16 at Tue Nov 22 12:28:47 2022.
